 Gaussian 16, Revision A.03,
 Gaussian 16:  ES64L-G16RevA.03 25-Dec-2016

 ---------------
 #DFTBA OPT FREQ
 ---------------

 -----
 Title
 -----
 Symbolic Z-matrix:
 Charge =  0 Multiplicity = 1

 SCF Done:  E(RDFT-SCTBA) =  -4.07754888650     A.U. after    6 cycles
 SCF Done:  E(RDFT-SCTBA) =  -4.07777953134     A.U. after    6 cycles
 SCF Done:  E(RDFT-SCTBA) =  -4.07778551728     A.U. after    5 cycles
 Optimization completed.
    -- Stationary point found.
 Normal termination of Gaussian 16 at Fri Sep 20 16:43:22 2024.

 ---------------------------------------------------------------
 #N Geom=AllCheck Guess=TCheck SCRF=Check GenChk RDFTBA/ZDO Freq
 ---------------------------------------------------------------

 Structure from the checkpoint file:  "/scratch/mdturne9/Gau-721359.chk"
 -----
 Title
 -----
 Charge =  0 Multiplicity = 1

                         Standard orientation:
 ---------------------------------------------------------------------
 Center     Atomic      Atomic             Coordinates (Angstroms)
 Number     Number       Type             X           Y           Z
 ---------------------------------------------------------------------
      1          8           0        0.000000    0.114556   -0.000000
      2          1           0        0.777590   -0.458225   -0.000000
      3          1           0       -0.777590   -0.458225    0.000000
 ---------------------------------------------------------------------

 SCF Done:  E(RDFT-SCTBA) =  -4.07778551727     A.U. after    2 cycles

 The electronic state is 1-A'.
 Alpha  occ. eigenvalues --   -0.84916  -0.41463  -0.31373  -0.25923
 Alpha virt. eigenvalues --    0.40231   0.56277

 Mulliken charges:
               1
     1  O   -0.593046
     2  H    0.296523
     3  H    0.296523
 Sum of Mulliken charges =   0.00000

 Dipole moment (field-independent basis, Debye):
    X=              0.0000    Y=             -2.4497    Z=              0.0000  Tot=              2.4497
 Quadrupole moment (field-independent basis, Debye-Ang):
   XX=             -3.1423   YY=             -4.8924   ZZ=             -5.8229
   XY=              0.0000   XZ=             -0.0000   YZ=             -0.0000

  Exact polarizability:   3.858   0.000   1.857  -0.000  -0.000   0.007
 Approx polarizability:   4.406   0.000   2.307  -0.000  -0.000   0.007

                      1                      2                      3
                     A'                     A'                     A'
 Frequencies --   1526.3551              3690.6198              3963.8133
 Red. masses --      1.0819                 1.0459                 1.0846
 Frc consts  --      1.4851                 8.3931                10.0400
 IR Inten    --    160.3848                28.7556                 1.4487

 - Thermochemistry -
 -------------------
 Temperature   298.150 Kelvin.  Pressure   1.00000 Atm.
 Atom     1 has atomic number  8 and mass  15.99491

 Molecular mass:    18.01056 amu.
 Principal axes and moments of inertia in atomic units:
                           1         2         3
     Eigenvalues --     2.09723   4.35226   6.44949
           X            1.00000  -0.00000   0.00000
           Y            0.00000   1.00000   0.00000
           Z           -0.00000  -0.00000   1.00000
 This molecule is an asymmetric top.
 Rotational symmetry number  1.
 Rotational temperatures (Kelvin)     41.29925    19.90092    13.42959
 Rotational constants (GHZ):         860.53669   414.66780   279.82716
 Zero-point vibrational energy      54913.3 (Joules/Mol)
                                   13.12460 (Kcal/Mol)
 Vibrational temperatures:   2196.08  5309.98  5703.04
          (Kelvin)

 Zero-point correction=                           0.020915 (Hartree/Particle)
 Thermal correction to Energy=                    0.023752
 Thermal correction to Enthalpy=                  0.024697
 Thermal correction to Gibbs Free Energy=         0.002617
 Sum of electronic and zero-point Energies=             -4.056870
 Sum of electronic and thermal Energies=                -4.054033
 Sum of electronic and thermal Enthalpies=              -4.053089
 Sum of electronic and thermal Free Energies=           -4.075169

                     E (Thermal)             CV                S
                      KCal/Mol        Cal/Mol-Kelvin    Cal/Mol-Kelvin
 Total                   14.905              6.030             46.471
 Electronic               0.000              0.000              0.000
 Translational            0.889              2.981             34.608
 Rotational               0.889              2.981             11.852
 Vibrational             13.127              0.068              0.011

 Optimization completed.
    -- Stationary point found.
 Normal termination of Gaussian 16 at Fri Sep 20 16:43:24 2024.
